 vasp.5.4.1 05Feb16 (build Jul 05 2020 17:13:04) complex                        
  
 executed on           IFC91_ompi date 2023.12.29  12:57:18
 running on   16 total cores
 distrk:  each k-point on   16 cores,    1 groups
 distr:  one band on NCORES_PER_BAND=   1 cores,   16 groups


--------------------------------------------------------------------------------------------------------


 INCAR:
 POTCAR:   PAW_PBE Cr 06Sep2000                   
 POTCAR:    PAW_PBE S 17Jan2003                   

 ----------------------------------------------------------------------------- 
|                                                                             |
|           W    W    AA    RRRRR   N    N  II  N    N   GGGG   !!!           |
|           W    W   A  A   R    R  NN   N  II  NN   N  G    G  !!!           |
|           W    W  A    A  R    R  N N  N  II  N N  N  G       !!!           |
|           W WW W  AAAAAA  RRRRR   N  N N  II  N  N N  G  GGG   !            |
|           WW  WW  A    A  R   R   N   NN  II  N   NN  G    G                |
|           W    W  A    A  R    R  N    N  II  N    N   GGGG   !!!           |
|                                                                             |
|      For optimal performance we recommend to set                            |
|        NCORE= 4 - approx SQRT( number of cores)                             |
|      NCORE specifies how many cores store one orbital (NPAR=cpu/NCORE).     |
|      This setting can  greatly improve the performance of VASP for DFT.     |
|      The default, NPAR=number of cores might be grossly inefficient         |
|      on modern multi-core architectures or massively parallel machines.     |
|      Do your own testing !!!!                                               |
|      Unfortunately you need to use the default for GW and RPA calculations. |
|      (for HF NCORE is supported but not extensively tested yet)             |
|                                                                             |
 ----------------------------------------------------------------------------- 

 POTCAR:   PAW_PBE Cr 06Sep2000                   
   VRHFIN =Cr : d5 s1                                                           
   LEXCH  = PE                                                                  
   EATOM  =   276.9744 eV,   20.3570 Ry                                         
                                                                                
   TITEL  = PAW_PBE Cr 06Sep2000                                                
   LULTRA =        F    use ultrasoft PP ?                                      
   IUNSCR =        1    unscreen: 0-lin 1-nonlin 2-no                           
   RPACOR =    2.080    partial core radius                                     
   POMASS =   51.996; ZVAL   =    6.000    mass and valenz                      
   RCORE  =    2.500    outmost cutoff radius                                   
   RWIGS  =    2.500; RWIGS  =    1.323    wigner-seitz radius (au A)           
   ENMAX  =  227.082; ENMIN  =  170.311 eV                                      
   RCLOC  =    1.721    cutoff for local pot                                    
   LCOR   =        T    correct aug charges                                     
   LPAW   =        T    paw PP                                                  
   EAUG   =  402.108                                                            
   DEXC   =    -.035                                                            
   RMAX   =    3.060    core radius for proj-oper                               
   RAUG   =    1.300    factor for augmentation sphere                          
   RDEP   =    2.609    radius for radial grids                                 
   QCUT   =   -4.085; QGAM   =    8.171    optimization parameters              
                                                                                
   Description                                                                  
     l     E      TYP  RCUT    TYP  RCUT                                        
     2   .000     23  2.500                                                     
     2   .000     23  2.500                                                     
     0   .000     23  2.500                                                     
     0   .000     23  2.500                                                     
     1  -.400     23  2.500                                                     
     1  2.000     23  2.500                                                     
     3   .000      7   .000                                                     
  local pseudopotential read in
  partial core-charges read in
  atomic valenz-charges read in
  non local Contribution for L=           2  read in
    real space projection operators read in
  non local Contribution for L=           2  read in
    real space projection operators read in
  non local Contribution for L=           0  read in
    real space projection operators read in
  non local Contribution for L=           0  read in
    real space projection operators read in
  non local Contribution for L=           1  read in
    real space projection operators read in
  non local Contribution for L=           1  read in
    real space projection operators read in
    PAW grid and wavefunctions read in
 
   number of l-projection  operators is LMAX  =           6
   number of lm-projection operators is LMMAX =          18
 
 POTCAR:    PAW_PBE S 17Jan2003                   
   VRHFIN =S : s2p4                                                             
   LEXCH  = PE                                                                  
   EATOM  =   276.8230 eV,   20.3459 Ry                                         
                                                                                
   TITEL  = PAW_PBE S 17Jan2003                                                 
   LULTRA =        F    use ultrasoft PP ?                                      
   IUNSCR =        1    unscreen: 0-lin 1-nonlin 2-no                           
   RPACOR =    1.500    partial core radius                                     
   POMASS =   32.066; ZVAL   =    6.000    mass and valenz                      
   RCORE  =    1.900    outmost cutoff radius                                   
   RWIGS  =    2.200; RWIGS  =    1.164    wigner-seitz radius (au A)           
   ENMAX  =  280.000; ENMIN  =  194.016 eV                                      
   ICORE  =        2    local potential                                         
   LCOR   =        T    correct aug charges                                     
   LPAW   =        T    paw PP                                                  
   EAUG   =  335.092                                                            
   DEXC   =     .000                                                            
   RMAX   =    2.867    core radius for proj-oper                               
   RAUG   =    1.300    factor for augmentation sphere                          
   RDEP   =    1.954    radius for radial grids                                 
   QCUT   =   -4.360; QGAM   =    8.721    optimization parameters              
                                                                                
   Description                                                                  
     l     E      TYP  RCUT    TYP  RCUT                                        
     0   .000     23  1.900                                                     
     0   .000     23  1.900                                                     
     1   .000     23  1.900                                                     
     1   .000     23  1.900                                                     
     2   .000     23  1.900                                                     
  local pseudopotential read in
  partial core-charges read in
  atomic valenz-charges read in
  non local Contribution for L=           0  read in
    real space projection operators read in
  non local Contribution for L=           0  read in
    real space projection operators read in
  non local Contribution for L=           1  read in
    real space projection operators read in
  non local Contribution for L=           1  read in
    real space projection operators read in
    PAW grid and wavefunctions read in
 
   number of l-projection  operators is LMAX  =           4
   number of lm-projection operators is LMMAX =           8
 

 ----------------------------------------------------------------------------- 
|                                                                             |
|  ADVICE TO THIS USER RUNNING 'VASP/VAMP'   (HEAR YOUR MASTER'S VOICE ...):  |
|                                                                             |
|      You have a (more or less) 'large supercell' and for larger cells       |
|      it might be more efficient to use real space projection operators      |
|      So try LREAL= Auto  in the INCAR   file.                               |
|      Mind: If you want to do a very accurate calculations keep the          |
|      reciprocal projection scheme          (i.e. LREAL=.FALSE.)             |
|                                                                             |
 ----------------------------------------------------------------------------- 

 PAW_PBE Cr 06Sep2000                   :
 energy of atom  1       EATOM= -276.9744
 kinetic energy error for atom=    0.0012 (will be added to EATOM!!)
  PAW_PBE S 17Jan2003                   :
 energy of atom  2       EATOM= -276.8230
 kinetic energy error for atom=    0.0020 (will be added to EATOM!!)
 
 
 POSCAR: crystal structure from CrS2 with Hexagin
  positions in direct lattice
  No initial velocities read in
 exchange correlation table for  LEXCH =        8
   RHO(1)=    0.500       N(1)  =     2000
   RHO(2)=  100.500       N(2)  =     4000

 ----------------------------------------------------------------------------- 
|                                                                             |
|           W    W    AA    RRRRR   N    N  II  N    N   GGGG   !!!           |
|           W    W   A  A   R    R  NN   N  II  NN   N  G    G  !!!           |
|           W    W  A    A  R    R  N N  N  II  N N  N  G       !!!           |
|           W WW W  AAAAAA  RRRRR   N  N N  II  N  N N  G  GGG   !            |
|           WW  WW  A    A  R   R   N   NN  II  N   NN  G    G                |
|           W    W  A    A  R    R  N    N  II  N    N   GGGG   !!!           |
|                                                                             |
|      VASP found     78 degrees of freedom                                   |
|      the temperature will equal 2*E(kin)/ (degrees of freedom)              |
|      this differs from previous releases, where T was 2*E(kin)/(3 NIONS).   |
|      The new definition is more consistent                                  |
|                                                                             |
 ----------------------------------------------------------------------------- 

 


--------------------------------------------------------------------------------------------------------


 ion  position               nearest neighbor table
   1  0.000  0.000  0.000-  14 1.21  15 1.21  16 1.63  22 1.63  20 2.23   9 2.23   8 2.78  21 2.78

   2  0.000  0.031  0.679-   3 0.62   4 0.79  25 1.27  18 1.29  10 1.41  23 1.63  17 1.63  24 2.10

   3  0.000  0.969  0.679-   2 0.62  10 0.79  25 1.27  23 1.29   4 1.41  24 1.63  18 1.63  17 2.10

   4  0.000  0.110  0.680-   2 0.79  17 1.21  18 1.21   3 1.41  25 1.63  10 2.21  23 2.23  24 2.78

   5  0.000  0.141  0.359-   6 0.62   7 0.79  13 1.41  26 1.63  27 2.10  11 2.21  12 2.83
   6  0.000  0.079  0.359-   5 0.62  13 0.79  26 1.29   7 1.41  11 1.58  27 1.63  12 2.21
   7  0.000  0.220  0.360-   5 0.79   6 1.41  13 2.21  26 2.23  27 2.78
   8  0.000  0.251  0.039-   9 0.62  16 1.41  14 2.21   1 2.78  15 2.83
   9  0.000  0.189  0.039-   8 0.62  16 0.79  14 1.58  15 2.21   1 2.23
  10  0.000  0.890  0.680-   3 0.79  23 1.21  24 1.21   2 1.41  25 1.63   4 2.21  18 2.23  17 2.78

  11  0.000  0.921  0.359-  12 0.62  13 0.79  27 1.29  19 1.41   6 1.58  26 1.63   5 2.21
  12  0.000  0.859  0.359-  11 0.62  19 0.79  13 1.41  27 1.63  26 2.10   6 2.21   5 2.83
  13  0.000  0.000  0.360-   6 0.79  11 0.79  26 1.21  27 1.21   5 1.41  12 1.41   7 2.21  19 2.21

  14  0.000  0.031  0.039-  15 0.62  16 0.79   1 1.21  22 1.41   9 1.58  20 2.21   8 2.21
  15  0.000  0.969  0.039-  14 0.62  22 0.79   1 1.21  16 1.41  20 1.58   9 2.21  21 2.21   8 2.83

  16  0.000  0.110  0.040-   9 0.79  14 0.79   8 1.41  15 1.41   1 1.63  22 2.21
  17  0.000  0.141  0.719-  18 0.62   4 1.21  25 1.41   2 1.63   3 2.10  23 2.21  10 2.78
  18  0.000  0.079  0.719-  17 0.62  25 0.79   4 1.21   2 1.29  23 1.58   3 1.63  24 2.21  10 2.23

  19  0.000  0.780  0.360-  12 0.79  11 1.41  13 2.21  27 2.23  26 2.78
  20  0.000  0.811  0.039-  21 0.62  22 0.79  15 1.58  14 2.21   1 2.23
  21  0.000  0.749  0.039-  20 0.62  22 1.41  15 2.21   1 2.78
  22  0.000  0.890  0.040-  20 0.79  15 0.79  14 1.41  21 1.41   1 1.63  16 2.21
  23  0.000  0.921  0.719-  24 0.62  25 0.79  10 1.21   3 1.29  18 1.58   2 1.63  17 2.21   4 2.23

  24  0.000  0.859  0.719-  23 0.62  10 1.21  25 1.41   3 1.63   2 2.10  18 2.21   4 2.78
  25  0.000  0.000  0.720-  18 0.79  23 0.79   2 1.27   3 1.27  17 1.41  24 1.41   4 1.63  10 1.63

  26  0.000  0.031  0.399-  27 0.62  13 1.21   6 1.29   5 1.63  11 1.63  12 2.10   7 2.23  19 2.78

  27  0.000  0.969  0.399-  26 0.62  13 1.21  11 1.29   6 1.63  12 1.63   5 2.10  19 2.23   7 2.78

 

 ----------------------------------------------------------------------------- 
|                                                                             |
|           W    W    AA    RRRRR   N    N  II  N    N   GGGG   !!!           |
|           W    W   A  A   R    R  NN   N  II  NN   N  G    G  !!!           |
|           W    W  A    A  R    R  N N  N  II  N N  N  G       !!!           |
|           W WW W  AAAAAA  RRRRR   N  N N  II  N  N N  G  GGG   !            |
|           WW  WW  A    A  R   R   N   NN  II  N   NN  G    G                |
|           W    W  A    A  R    R  N    N  II  N    N   GGGG   !!!           |
|                                                                             |
|      The distance between some ions is very small                           |
|      please check the nearest neigbor list in the OUTCAR file               |
|          I HOPE YOU KNOW, WHAT YOU ARE  DOING                               |
|                                                                             |
 ----------------------------------------------------------------------------- 

  LATTYP: Found a base centered orthorhombic cell.
 ALAT       =    10.0800000000
 B/A-ratio  =     1.7202380952
 C/A-ratio  =     2.9761904762
  
  Lattice vectors:
  
 A1 = (   8.6700000000,   5.0400000000,   0.0000000000)
 A2 = (  -8.6700000000,   5.0400000000,   0.0000000000)
 A3 = (   0.0000000000,   0.0000000000,  30.0000000000)


Analysis of symmetry for initial positions (statically):
=====================================================================
 Subroutine PRICEL returns:
 Original cell was already a primitive cell.
 

 Routine SETGRP: Setting up the symmetry group for a 
 base centered orthorhombic supercell.


 Subroutine GETGRP returns: Found  1 space group operations
 (whereof  1 operations were pure point group operations)
 out of a pool of  8 trial point group operations.


The static configuration has the point symmetry C_1 .


Analysis of symmetry for dynamics (positions and initial velocities):
=====================================================================
 Subroutine PRICEL returns:
 Original cell was already a primitive cell.
 

 Routine SETGRP: Setting up the symmetry group for a 
 base centered orthorhombic supercell.


 Subroutine GETGRP returns: Found  1 space group operations
 (whereof  1 operations were pure point group operations)
 out of a pool of  8 trial point group operations.


The dynamic configuration has the point symmetry C_1 .


 Subroutine INISYM returns: Found  1 space group operations
 (whereof  1 operations are pure point group operations),
 and found     1 'primitive' translations

 
 
 KPOINTS: K-POINTS 	#supercell of CrS2 in hexagona

Automatic generation of k-mesh.
Space group operators:
 irot       det(A)        alpha          n_x          n_y          n_z        tau_x        tau_y        tau_z
    1     1.000000     0.000001     1.000000     0.000000     0.000000     0.000000     0.000000     0.000000
 
 Subroutine IBZKPT returns following result:
 ===========================================
 
 Found     74 irreducible k-points:
 
 Following reciprocal coordinates:
            Coordinates               Weight
  0.000000  0.000000  0.000000      1.000000
  0.083333  0.000000  0.000000      2.000000
  0.166667 -0.000000  0.000000      2.000000
  0.250000 -0.000000  0.000000      2.000000
  0.333333 -0.000000  0.000000      2.000000
  0.416667  0.000000  0.000000      2.000000
  0.500000 -0.000000  0.000000      1.000000
  0.000000  0.083333  0.000000      2.000000
  0.083333  0.083333  0.000000      2.000000
  0.166667  0.083333  0.000000      2.000000
  0.250000  0.083333  0.000000      2.000000
  0.333333  0.083333  0.000000      2.000000
  0.416667  0.083333  0.000000      2.000000
  0.500000  0.083333  0.000000      2.000000
 -0.416667  0.083333  0.000000      2.000000
 -0.333333  0.083333  0.000000      2.000000
 -0.250000  0.083333  0.000000      2.000000
 -0.166667  0.083333  0.000000      2.000000
 -0.083333  0.083333  0.000000      2.000000
 -0.000000  0.166667  0.000000      2.000000
  0.083333  0.166667  0.000000      2.000000
  0.166667  0.166667  0.000000      2.000000
  0.250000  0.166667  0.000000      2.000000
  0.333333  0.166667  0.000000      2.000000
  0.416667  0.166667  0.000000      2.000000
  0.500000  0.166667  0.000000      2.000000
 -0.416667  0.166667  0.000000      2.000000
 -0.333333  0.166667  0.000000      2.000000
 -0.250000  0.166667  0.000000      2.000000
 -0.166667  0.166667  0.000000      2.000000
 -0.083333  0.166667  0.000000      2.000000
 -0.000000  0.250000  0.000000      2.000000
  0.083333  0.250000  0.000000      2.000000
  0.166667  0.250000  0.000000      2.000000
  0.250000  0.250000  0.000000      2.000000
  0.333333  0.250000  0.000000      2.000000
  0.416667  0.250000  0.000000      2.000000
  0.500000  0.250000  0.000000      2.000000
 -0.416667  0.250000  0.000000      2.000000
 -0.333333  0.250000  0.000000      2.000000
 -0.250000  0.250000  0.000000      2.000000
 -0.166667  0.250000  0.000000      2.000000
 -0.083333  0.250000  0.000000      2.000000
 -0.000000  0.333333  0.000000      2.000000
  0.083333  0.333333  0.000000      2.000000
  0.166667  0.333333  0.000000      2.000000
  0.250000  0.333333  0.000000      2.000000
  0.333333  0.333333  0.000000      2.000000
  0.416667  0.333333  0.000000      2.000000
  0.500000  0.333333  0.000000      2.000000
 -0.416667  0.333333  0.000000      2.000000
 -0.333333  0.333333  0.000000      2.000000
 -0.250000  0.333333  0.000000      2.000000
 -0.166667  0.333333  0.000000      2.000000
 -0.083333  0.333333  0.000000      2.000000
  0.000000  0.416667  0.000000      2.000000
  0.083333  0.416667  0.000000      2.000000
  0.166667  0.416667  0.000000      2.000000
  0.250000  0.416667  0.000000      2.000000
  0.333333  0.416667  0.000000      2.000000
  0.416667  0.416667  0.000000      2.000000
  0.500000  0.416667  0.000000      2.000000
 -0.416667  0.416667  0.000000      2.000000
 -0.333333  0.416667  0.000000      2.000000
 -0.250000  0.416667  0.000000      2.000000
 -0.166667  0.416667  0.000000      2.000000
 -0.083333  0.416667  0.000000      2.000000
 -0.000000  0.500000  0.000000      1.000000
  0.083333  0.500000  0.000000      2.000000
  0.166667  0.500000  0.000000      2.000000
  0.250000  0.500000  0.000000      2.000000
  0.333333  0.500000  0.000000      2.000000
  0.416667  0.500000  0.000000      2.000000
  0.500000  0.500000  0.000000      1.000000
 
 Following cartesian coordinates:
            Coordinates               Weight
  0.000000  0.000000  0.000000      1.000000
  0.004806  0.008267  0.000000      2.000000
  0.009612  0.016534  0.000000      2.000000
  0.014418  0.024802  0.000000      2.000000
  0.019223  0.033069  0.000000      2.000000
  0.024029  0.041336  0.000000      2.000000
  0.028835  0.049603  0.000000      1.000000
 -0.004806  0.008267  0.000000      2.000000
  0.000000  0.016534  0.000000      2.000000
  0.004806  0.024802  0.000000      2.000000
  0.009612  0.033069  0.000000      2.000000
  0.014418  0.041336  0.000000      2.000000
  0.019223  0.049603  0.000000      2.000000
  0.024029  0.057870  0.000000      2.000000
 -0.028835 -0.033069  0.000000      2.000000
 -0.024029 -0.024802  0.000000      2.000000
 -0.019223 -0.016534  0.000000      2.000000
 -0.014418 -0.008267  0.000000      2.000000
 -0.009612  0.000000  0.000000      2.000000
 -0.009612  0.016534  0.000000      2.000000
 -0.004806  0.024802  0.000000      2.000000
  0.000000  0.033069  0.000000      2.000000
  0.004806  0.041336  0.000000      2.000000
  0.009612  0.049603  0.000000      2.000000
  0.014418  0.057870  0.000000      2.000000
  0.019223  0.066138  0.000000      2.000000
 -0.033641 -0.024802  0.000000      2.000000
 -0.028835 -0.016534  0.000000      2.000000
 -0.024029 -0.008267  0.000000      2.000000
 -0.019223  0.000000  0.000000      2.000000
 -0.014418  0.008267  0.000000      2.000000
 -0.014418  0.024802  0.000000      2.000000
 -0.009612  0.033069  0.000000      2.000000
 -0.004806  0.041336  0.000000      2.000000
  0.000000  0.049603  0.000000      2.000000
  0.004806  0.057870  0.000000      2.000000
  0.009612  0.066138  0.000000      2.000000
  0.014418  0.074405  0.000000      2.000000
 -0.038447 -0.016534  0.000000      2.000000
 -0.033641 -0.008267  0.000000      2.000000
 -0.028835  0.000000  0.000000      2.000000
 -0.024029  0.008267  0.000000      2.000000
 -0.019223  0.016534  0.000000      2.000000
 -0.019223  0.033069  0.000000      2.000000
 -0.014418  0.041336  0.000000      2.000000
 -0.009612  0.049603  0.000000      2.000000
 -0.004806  0.057870  0.000000      2.000000
  0.000000  0.066138  0.000000      2.000000
  0.004806  0.074405  0.000000      2.000000
  0.009612  0.082672  0.000000      2.000000
 -0.043253 -0.008267  0.000000      2.000000
 -0.038447  0.000000  0.000000      2.000000
 -0.033641  0.008267  0.000000      2.000000
 -0.028835  0.016534  0.000000      2.000000
 -0.024029  0.024802  0.000000      2.000000
 -0.024029  0.041336  0.000000      2.000000
 -0.019223  0.049603  0.000000      2.000000
 -0.014418  0.057870  0.000000      2.000000
 -0.009612  0.066138  0.000000      2.000000
 -0.004806  0.074405  0.000000      2.000000
  0.000000  0.082672  0.000000      2.000000
  0.004806  0.090939  0.000000      2.000000
 -0.048058  0.000000  0.000000      2.000000
 -0.043253  0.008267  0.000000      2.000000
 -0.038447  0.016534  0.000000      2.000000
 -0.033641  0.024802  0.000000      2.000000
 -0.028835  0.033069  0.000000      2.000000
 -0.028835  0.049603  0.000000      1.000000
 -0.024029  0.057870  0.000000      2.000000
 -0.019223  0.066138  0.000000      2.000000
 -0.014418  0.074405  0.000000      2.000000
 -0.009612  0.082672  0.000000      2.000000
 -0.004806  0.090939  0.000000      2.000000
  0.000000  0.099206  0.000000      1.000000
 


--------------------------------------------------------------------------------------------------------




 Dimension of arrays:
   k-points           NKPTS =     74   k-points in BZ     NKDIM =     74   number of bands    NBANDS=    112
   number of dos      NEDOS =    301   number of ions     NIONS =     27
   non local maximal  LDIM  =      6   non local SUM 2l+1 LMDIM =     18
   total plane-waves  NPLWV = ******
   max r-space proj   IRMAX =      1   max aug-charges    IRDMAX=  28130
   dimension x,y,z NGX =    80 NGY =   80 NGZ =  224
   dimension x,y,z NGXF=   160 NGYF=  160 NGZF=  448
   support grid    NGXF=   160 NGYF=  160 NGZF=  448
   ions per type =               9  18
 NGX,Y,Z   is equivalent  to a cutoff of  13.26, 13.26, 12.41 a.u.
 NGXF,Y,Z  is equivalent  to a cutoff of  26.52, 26.52, 24.83 a.u.


 I would recommend the setting:
   dimension x,y,z NGX =    73 NGY =   73 NGZ =  219
 SYSTEM =  unknown system                          
 POSCAR =  crystal structure from CrS2 with Hexagin

 Startparameter for this run:
   NWRITE =      2    write-flag & timer
   PREC   = accura    normal or accurate (medium, high low for compatibility)
   ISTART =      0    job   : 0-new  1-cont  2-samecut
   ICHARG =      2    charge: 1-file 2-atom 10-const
   ISPIN  =      1    spin polarized calculation?
   LNONCOLLINEAR =      F non collinear calculations
   LSORBIT =      F    spin-orbit coupling
   INIWAV =      1    electr: 0-lowe 1-rand  2-diag
   LASPH  =      F    aspherical Exc in radial PAW
   METAGGA=      F    non-selfconsistent MetaGGA calc.

 Electronic Relaxation 1
   ENCUT  =  500.0 eV  36.75 Ry    6.06 a.u.  18.28 18.28 54.70*2*pi/ulx,y,z
   ENINI  =  500.0     initial cutoff
   ENAUG  =  402.1 eV  augmentation charge cutoff
   NELM   =     60;   NELMIN=  2; NELMDL= -5     # of ELM steps 
   EDIFF  = 0.1E-03   stopping-criterion for ELM
   LREAL  =      F    real-space projection
   NLSPLINE    = F    spline interpolate recip. space projectors
   LCOMPAT=      F    compatible to vasp.4.4
   GGA_COMPAT  = T    GGA compatible to vasp.4.4-vasp.4.6
   LMAXPAW     = -100 max onsite density
   LMAXMIX     =    2 max onsite mixed and CHGCAR
   VOSKOWN=      0    Vosko Wilk Nusair interpolation
   ROPT   =    0.00000   0.00000
 Ionic relaxation
   EDIFFG = 0.1E-02   stopping-criterion for IOM
   NSW    =    100    number of steps for IOM
   NBLOCK =      1;   KBLOCK =    100    inner block; outer block 
   IBRION =      0    ionic relax: 0-MD 1-quasi-New 2-CG
   NFREE  =      0    steps in history (QN), initial steepest desc. (CG)
   ISIF   =      2    stress and relaxation
   IWAVPR =     12    prediction:  0-non 1-charg 2-wave 3-comb
   ISYM   =      2    0-nonsym 1-usesym 2-fastsym
   LCORR  =      T    Harris-Foulkes like correction to forces

   POTIM  = 0.1000    time-step for ionic-motion
   TEIN   =    0.0    initial temperature
   TEBEG  =    0.0;   TEEND  =   0.0 temperature during run
   SMASS  =  -3.00    Nose mass-parameter (am)
   estimated Nose-frequenzy (Omega)   =  0.10E-29 period in steps =****** mass=  -0.230E-26a.u.
   SCALEE = 1.0000    scale energy and forces
   NPACO  =    256;   APACO  = 16.0  distance and # of slots for P.C.
   PSTRESS=    0.0 pullay stress

  Mass of Ions in am
   POMASS =  52.00 32.07
  Ionic Valenz
   ZVAL   =   6.00  6.00
  Atomic Wigner-Seitz radii
   RWIGS  =  -1.00 -1.00
  virtual crystal weights 
   VCA    =   1.00  1.00
   NELECT =     162.0000    total number of electrons
   NUPDOWN=      -1.0000    fix difference up-down

 DOS related values:
   EMIN   =  10.00;   EMAX   =-10.00  energy-range for DOS
   EFERMI =   0.00
   ISMEAR =     0;   SIGMA  =   0.20  broadening in eV -4-tet -1-fermi 0-gaus

 Electronic relaxation 2 (details)
   IALGO  =     38    algorithm
   LDIAG  =      T    sub-space diagonalisation (order eigenvalues)
   LSUBROT=      F    optimize rotation matrix (better conditioning)
   TURBO    =      0    0=normal 1=particle mesh
   IRESTART =      0    0=no restart 2=restart with 2 vectors
   NREBOOT  =      0    no. of reboots
   NMIN     =      0    reboot dimension
   EREF     =   0.00    reference energy to select bands
   IMIX   =      4    mixing-type and parameters
     AMIX     =   0.40;   BMIX     =  1.00
     AMIX_MAG =   1.60;   BMIX_MAG =  1.00
     AMIN     =   0.10
     WC   =   100.;   INIMIX=   1;  MIXPRE=   1;  MAXMIX= -45

 Intra band minimization:
   WEIMIN = 0.0010     energy-eigenvalue tresh-hold
   EBREAK =  0.22E-06  absolut break condition
   DEPER  =   0.30     relativ break condition  

   TIME   =   0.40     timestep for ELM

  volume/ion in A,a.u.               =      97.10       655.29
  Fermi-wavevector in a.u.,A,eV,Ry     =   0.647211  1.223052  5.699245  0.418883
  Thomas-Fermi vector in A             =   1.715446
 
 Write flags
   LWAVE  =      T    write WAVECAR
   LCHARG =      T    write CHGCAR
   LVTOT  =      F    write LOCPOT, total local potential
   LVHAR  =      F    write LOCPOT, Hartree potential only
   LELF   =      F    write electronic localiz. function (ELF)
   LORBIT =      0    0 simple, 1 ext, 2 COOP (PROOUT)


 Dipole corrections
   LMONO  =      F    monopole corrections only (constant potential shift)
   LDIPOL =      F    correct potential (dipole corrections)
   IDIPOL =      0    1-x, 2-y, 3-z, 4-all directions 
   EPSILON=  1.0000000 bulk dielectric constant

 Exchange correlation treatment:
   GGA     =    --    GGA type
   LEXCH   =     8    internal setting for exchange type
   VOSKOWN=      0    Vosko Wilk Nusair interpolation
   LHFCALC =     F    Hartree Fock is set to
   LHFONE  =     F    Hartree Fock one center treatment
   AEXX    =    0.0000 exact exchange contribution

 Linear response parameters
   LEPSILON=     F    determine dielectric tensor
   LRPA    =     F    only Hartree local field effects (RPA)
   LNABLA  =     F    use nabla operator in PAW spheres
   LVEL    =     F    velocity operator in full k-point grid
   LINTERFAST=   F  fast interpolation
   KINTER  =     0    interpolate to denser k-point grid
   CSHIFT  =0.1000    complex shift for real part using Kramers Kronig
   OMEGAMAX=  -1.0    maximum frequency
   DEG_THRESHOLD= 0.2000000E-02 threshold for treating states as degnerate
   RTIME   =    0.100 relaxation time in fs

 Orbital magnetization related:
   ORBITALMAG=     F  switch on orbital magnetization
   LCHIMAG   =     F  perturbation theory with respect to B field
   DQ        =  0.001000  dq finite difference perturbation B field



--------------------------------------------------------------------------------------------------------


 molecular dynamics for ions
   using a microcanonical ensemble
 charge density and potential will be updated during run
 non-spin polarized calculation
 Variant of blocked Davidson
 Davidson routine will perform the subspace rotation
 perform sub-space diagonalisation
    after iterative eigenvector-optimisation
 modified Broyden-mixing scheme, WC =      100.0
 initial mixing is a Kerker type mixing with AMIX =  0.4000 and BMIX =      1.0000
 Hartree-type preconditioning will be used
 using additional bands           31
 reciprocal scheme for non local part
 use partial core corrections
 calculate Harris-corrections to forces 
   (improved forces if not selfconsistent)
 use gradient corrections 
 use of overlap-Matrix (Vanderbilt PP)
 Gauss-broadening in eV      SIGMA  =   0.20


--------------------------------------------------------------------------------------------------------


  energy-cutoff  :      500.00
  volume of cell :     2621.81
      direct lattice vectors                 reciprocal lattice vectors
     8.670000000  5.040000000  0.000000000     0.057670127  0.099206349  0.000000000
    -8.670000000  5.040000000  0.000000000    -0.057670127  0.099206349  0.000000000
     0.000000000  0.000000000 30.000000000     0.000000000  0.000000000  0.033333333

  length of vectors
    10.028484432 10.028484432 30.000000000     0.114750788  0.114750788  0.033333333


 
 k-points in units of 2pi/SCALE and weight: K-POINTS 	#supercell of CrS2 in hexagona
   0.00000000  0.00000000  0.00000000       0.007
   0.00480584  0.00826720  0.00000000       0.014
   0.00961169  0.01653439  0.00000000       0.014
   0.01441753  0.02480159  0.00000000       0.014
   0.01922338  0.03306878  0.00000000       0.014
   0.02402922  0.04133598  0.00000000       0.014
   0.02883506  0.04960317  0.00000000       0.007
  -0.00480584  0.00826720  0.00000000       0.014
   0.00000000  0.01653439  0.00000000       0.014
   0.00480584  0.02480159  0.00000000       0.014
   0.00961169  0.03306878  0.00000000       0.014
   0.01441753  0.04133598  0.00000000       0.014
   0.01922338  0.04960317  0.00000000       0.014
   0.02402922  0.05787037  0.00000000       0.014
  -0.02883506 -0.03306878  0.00000000       0.014
  -0.02402922 -0.02480159  0.00000000       0.014
  -0.01922338 -0.01653439  0.00000000       0.014
  -0.01441753 -0.00826720  0.00000000       0.014
  -0.00961169  0.00000000  0.00000000       0.014
  -0.00961169  0.01653439  0.00000000       0.014
  -0.00480584  0.02480159  0.00000000       0.014
   0.00000000  0.03306878  0.00000000       0.014
   0.00480584  0.04133598  0.00000000       0.014
   0.00961169  0.04960317  0.00000000       0.014
   0.01441753  0.05787037  0.00000000       0.014
   0.01922338  0.06613757  0.00000000       0.014
  -0.03364091 -0.02480159  0.00000000       0.014
  -0.02883506 -0.01653439  0.00000000       0.014
  -0.02402922 -0.00826720  0.00000000       0.014
  -0.01922338  0.00000000  0.00000000       0.014
  -0.01441753  0.00826720  0.00000000       0.014
  -0.01441753  0.02480159  0.00000000       0.014
  -0.00961169  0.03306878  0.00000000       0.014
  -0.00480584  0.04133598  0.00000000       0.014
   0.00000000  0.04960317  0.00000000       0.014
   0.00480584  0.05787037  0.00000000       0.014
   0.00961169  0.06613757  0.00000000       0.014
   0.01441753  0.07440476  0.00000000       0.014
  -0.03844675 -0.01653439  0.00000000       0.014
  -0.03364091 -0.00826720  0.00000000       0.014
  -0.02883506  0.00000000  0.00000000       0.014
  -0.02402922  0.00826720  0.00000000       0.014
  -0.01922338  0.01653439  0.00000000       0.014
  -0.01922338  0.03306878  0.00000000       0.014
  -0.01441753  0.04133598  0.00000000       0.014
  -0.00961169  0.04960317  0.00000000       0.014
  -0.00480584  0.05787037  0.00000000       0.014
   0.00000000  0.06613757  0.00000000       0.014
   0.00480584  0.07440476  0.00000000       0.014
   0.00961169  0.08267196  0.00000000       0.014
  -0.04325260 -0.00826720  0.00000000       0.014
  -0.03844675  0.00000000  0.00000000       0.014
  -0.03364091  0.00826720  0.00000000       0.014
  -0.02883506  0.01653439  0.00000000       0.014
  -0.02402922  0.02480159  0.00000000       0.014
  -0.02402922  0.04133598  0.00000000       0.014
  -0.01922338  0.04960317  0.00000000       0.014
  -0.01441753  0.05787037  0.00000000       0.014
  -0.00961169  0.06613757  0.00000000       0.014
  -0.00480584  0.07440476  0.00000000       0.014
   0.00000000  0.08267196  0.00000000       0.014
   0.00480584  0.09093915  0.00000000       0.014
  -0.04805844  0.00000000  0.00000000       0.014
  -0.04325260  0.00826720  0.00000000       0.014
  -0.03844675  0.01653439  0.00000000       0.014
  -0.03364091  0.02480159  0.00000000       0.014
  -0.02883506  0.03306878  0.00000000       0.014
  -0.02883506  0.04960317  0.00000000       0.007
  -0.02402922  0.05787037  0.00000000       0.014
  -0.01922338  0.06613757  0.00000000       0.014
  -0.01441753  0.07440476  0.00000000       0.014
  -0.00961169  0.08267196  0.00000000       0.014
  -0.00480584  0.09093915  0.00000000       0.014
   0.00000000  0.09920635  0.00000000       0.007
 
 k-points in reciprocal lattice and weights: K-POINTS 	#supercell of CrS2 in hexagona
   0.00000000  0.00000000  0.00000000       0.007
   0.08333333  0.00000000  0.00000000       0.014
   0.16666667 -0.00000000  0.00000000       0.014
   0.25000000 -0.00000000  0.00000000       0.014
   0.33333333 -0.00000000  0.00000000       0.014
   0.41666667  0.00000000  0.00000000       0.014
   0.50000000 -0.00000000  0.00000000       0.007
   0.00000000  0.08333333  0.00000000       0.014
   0.08333333  0.08333333  0.00000000       0.014
   0.16666667  0.08333333  0.00000000       0.014
   0.25000000  0.08333333  0.00000000       0.014
   0.33333333  0.08333333  0.00000000       0.014
   0.41666667  0.08333333  0.00000000       0.014
   0.50000000  0.08333333  0.00000000       0.014
  -0.41666667  0.08333333  0.00000000       0.014
  -0.33333333  0.08333333  0.00000000       0.014
  -0.25000000  0.08333333  0.00000000       0.014
  -0.16666667  0.08333333  0.00000000       0.014
  -0.08333333  0.08333333  0.00000000       0.014
  -0.00000000  0.16666667  0.00000000       0.014
   0.08333333  0.16666667  0.00000000       0.014
   0.16666667  0.16666667  0.00000000       0.014
   0.25000000  0.16666667  0.00000000       0.014
   0.33333333  0.16666667  0.00000000       0.014
   0.41666667  0.16666667  0.00000000       0.014
   0.50000000  0.16666667  0.00000000       0.014
  -0.41666667  0.16666667  0.00000000       0.014
  -0.33333333  0.16666667  0.00000000       0.014
  -0.25000000  0.16666667  0.00000000       0.014
  -0.16666667  0.16666667  0.00000000       0.014
  -0.08333333  0.16666667  0.00000000       0.014
  -0.00000000  0.25000000  0.00000000       0.014
   0.08333333  0.25000000  0.00000000       0.014
   0.16666667  0.25000000  0.00000000       0.014
   0.25000000  0.25000000  0.00000000       0.014
   0.33333333  0.25000000  0.00000000       0.014
   0.41666667  0.25000000  0.00000000       0.014
   0.50000000  0.25000000  0.00000000       0.014
  -0.41666667  0.25000000  0.00000000       0.014
  -0.33333333  0.25000000  0.00000000       0.014
  -0.25000000  0.25000000  0.00000000       0.014
  -0.16666667  0.25000000  0.00000000       0.014
  -0.08333333  0.25000000  0.00000000       0.014
  -0.00000000  0.33333333  0.00000000       0.014
   0.08333333  0.33333333  0.00000000       0.014
   0.16666667  0.33333333  0.00000000       0.014
   0.25000000  0.33333333  0.00000000       0.014
   0.33333333  0.33333333  0.00000000       0.014
   0.41666667  0.33333333  0.00000000       0.014
   0.50000000  0.33333333  0.00000000       0.014
  -0.41666667  0.33333333  0.00000000       0.014
  -0.33333333  0.33333333  0.00000000       0.014
  -0.25000000  0.33333333  0.00000000       0.014
  -0.16666667  0.33333333  0.00000000       0.014
  -0.08333333  0.33333333  0.00000000       0.014
   0.00000000  0.41666667  0.00000000       0.014
   0.08333333  0.41666667  0.00000000       0.014
   0.16666667  0.41666667  0.00000000       0.014
   0.25000000  0.41666667  0.00000000       0.014
   0.33333333  0.41666667  0.00000000       0.014
   0.41666667  0.41666667  0.00000000       0.014
   0.50000000  0.41666667  0.00000000       0.014
  -0.41666667  0.41666667  0.00000000       0.014
  -0.33333333  0.41666667  0.00000000       0.014
  -0.25000000  0.41666667  0.00000000       0.014
  -0.16666667  0.41666667  0.00000000       0.014
  -0.08333333  0.41666667  0.00000000       0.014
  -0.00000000  0.50000000  0.00000000       0.007
   0.08333333  0.50000000  0.00000000       0.014
   0.16666667  0.50000000  0.00000000       0.014
   0.25000000  0.50000000  0.00000000       0.014
   0.33333333  0.50000000  0.00000000       0.014
   0.41666667  0.50000000  0.00000000       0.014
   0.50000000  0.50000000  0.00000000       0.007
 
 position of ions in fractional coordinates (direct lattice) 
   0.00000000  0.00000000  0.00000000
   0.00000000  0.03100000  0.67900000
   0.00000000  0.96900000  0.67900000
   0.00000000  0.11000000  0.68000000
   0.00000000  0.14100000  0.35900000
   0.00000000  0.07900000  0.35900000
   0.00000000  0.22000000  0.36000000
   0.00000000  0.25100000  0.03900000
   0.00000000  0.18900000  0.03900000
   0.00000000  0.89000000  0.68000000
   0.00000000  0.92100000  0.35900000
   0.00000000  0.85900000  0.35900000
   0.00000000  0.00000000  0.36000000
   0.00000000  0.03100000  0.03900000
   0.00000000  0.96900000  0.03900000
   0.00000000  0.11000000  0.04000000
   0.00000000  0.14100000  0.71900000
   0.00000000  0.07900000  0.71900000
   0.00000000  0.78000000  0.36000000
   0.00000000  0.81100000  0.03900000
   0.00000000  0.74900000  0.03900000
   0.00000000  0.89000000  0.04000000
   0.00000000  0.92100000  0.71900000
   0.00000000  0.85900000  0.71900000
   0.00000000  0.00000000  0.72000000
   0.00000000  0.03100000  0.39900000
   0.00000000  0.96900000  0.39900000
 
 position of ions in cartesian coordinates  (Angst):
   0.00000000  0.00000000  0.00000000
  -0.26877000  0.15624000 20.37000000
  -8.40123000  4.88376000 20.37000000
  -0.95370000  0.55440000 20.40000000
  -1.22247000  0.71064000 10.77000000
  -0.68493000  0.39816000 10.77000000
  -1.90740000  1.10880000 10.80000000
  -2.17617000  1.26504000  1.17000000
  -1.63863000  0.95256000  1.17000000
  -7.71630000  4.48560000 20.40000000
  -7.98507000  4.64184000 10.77000000
  -7.44753000  4.32936000 10.77000000
   0.00000000  0.00000000 10.80000000
  -0.26877000  0.15624000  1.17000000
  -8.40123000  4.88376000  1.17000000
  -0.95370000  0.55440000  1.20000000
  -1.22247000  0.71064000 21.57000000
  -0.68493000  0.39816000 21.57000000
  -6.76260000  3.93120000 10.80000000
  -7.03137000  4.08744000  1.17000000
  -6.49383000  3.77496000  1.17000000
  -7.71630000  4.48560000  1.20000000
  -7.98507000  4.64184000 21.57000000
  -7.44753000  4.32936000 21.57000000
   0.00000000  0.00000000 21.60000000
  -0.26877000  0.15624000 11.97000000
  -8.40123000  4.88376000 11.97000000
 


--------------------------------------------------------------------------------------------------------


 k-point  1 :   0.0000 0.0000 0.0000  plane waves:   66633
 k-point  2 :   0.0833 0.0000 0.0000  plane waves:   66607
 k-point  3 :   0.1667-0.0000 0.0000  plane waves:   66585
 k-point  4 :   0.2500-0.0000 0.0000  plane waves:   66596
 k-point  5 :   0.3333-0.0000 0.0000  plane waves:   66581
 k-point  6 :   0.4167 0.0000 0.0000  plane waves:   66552
 k-point  7 :   0.5000-0.0000 0.0000  plane waves:   66552
 k-point  8 :   0.0000 0.0833 0.0000  plane waves:   66607
 k-point  9 :   0.0833 0.0833 0.0000  plane waves:   66637
 k-point 10 :   0.1667 0.0833 0.0000  plane waves:   66552
 k-point 11 :   0.2500 0.0833 0.0000  plane waves:   66540
 k-point 12 :   0.3333 0.0833 0.0000  plane waves:   66547
 k-point 13 :   0.4167 0.0833 0.0000  plane waves:   66544
 k-point 14 :   0.5000 0.0833 0.0000  plane waves:   66502
 k-point 15 :  -0.4167 0.0833 0.0000  plane waves:   66530
 k-point 16 :  -0.3333 0.0833 0.0000  plane waves:   66577
 k-point 17 :  -0.2500 0.0833 0.0000  plane waves:   66544
 k-point 18 :  -0.1667 0.0833 0.0000  plane waves:   66584
 k-point 19 :  -0.0833 0.0833 0.0000  plane waves:   66583
 k-point 20 :  -0.0000 0.1667 0.0000  plane waves:   66585
 k-point 21 :   0.0833 0.1667 0.0000  plane waves:   66552
 k-point 22 :   0.1667 0.1667 0.0000  plane waves:   66557
 k-point 23 :   0.2500 0.1667 0.0000  plane waves:   66580
 k-point 24 :   0.3333 0.1667 0.0000  plane waves:   66506
 k-point 25 :   0.4167 0.1667 0.0000  plane waves:   66529
 k-point 26 :   0.5000 0.1667 0.0000  plane waves:   66552
 k-point 27 :  -0.4167 0.1667 0.0000  plane waves:   66555
 k-point 28 :  -0.3333 0.1667 0.0000  plane waves:   66580
 k-point 29 :  -0.2500 0.1667 0.0000  plane waves:   66583
 k-point 30 :  -0.1667 0.1667 0.0000  plane waves:   66569
 k-point 31 :  -0.0833 0.1667 0.0000  plane waves:   66584
 k-point 32 :  -0.0000 0.2500 0.0000  plane waves:   66596
 k-point 33 :   0.0833 0.2500 0.0000  plane waves:   66540
 k-point 34 :   0.1667 0.2500 0.0000  plane waves:   66580
 k-point 35 :   0.2500 0.2500 0.0000  plane waves:   66540
 k-point 36 :   0.3333 0.2500 0.0000  plane waves:   66519
 k-point 37 :   0.4167 0.2500 0.0000  plane waves:   66554
 k-point 38 :   0.5000 0.2500 0.0000  plane waves:   66555
 k-point 39 :  -0.4167 0.2500 0.0000  plane waves:   66555
 k-point 40 :  -0.3333 0.2500 0.0000  plane waves:   66553
 k-point 41 :  -0.2500 0.2500 0.0000  plane waves:   66576
 k-point 42 :  -0.1667 0.2500 0.0000  plane waves:   66583
 k-point 43 :  -0.0833 0.2500 0.0000  plane waves:   66544
 k-point 44 :  -0.0000 0.3333 0.0000  plane waves:   66581
 k-point 45 :   0.0833 0.3333 0.0000  plane waves:   66547
 k-point 46 :   0.1667 0.3333 0.0000  plane waves:   66506
 k-point 47 :   0.2500 0.3333 0.0000  plane waves:   66519
 k-point 48 :   0.3333 0.3333 0.0000  plane waves:   66550
 k-point 49 :   0.4167 0.3333 0.0000  plane waves:   66576
 k-point 50 :   0.5000 0.3333 0.0000  plane waves:   66558
 k-point 51 :  -0.4167 0.3333 0.0000  plane waves:   66563
 k-point 52 :  -0.3333 0.3333 0.0000  plane waves:   66550
 k-point 53 :  -0.2500 0.3333 0.0000  plane waves:   66553
 k-point 54 :  -0.1667 0.3333 0.0000  plane waves:   66580
 k-point 55 :  -0.0833 0.3333 0.0000  plane waves:   66577
 k-point 56 :   0.0000 0.4167 0.0000  plane waves:   66552
 k-point 57 :   0.0833 0.4167 0.0000  plane waves:   66544
 k-point 58 :   0.1667 0.4167 0.0000  plane waves:   66529
 k-point 59 :   0.2500 0.4167 0.0000  plane waves:   66554
 k-point 60 :   0.3333 0.4167 0.0000  plane waves:   66576
 k-point 61 :   0.4167 0.4167 0.0000  plane waves:   66560
 k-point 62 :   0.5000 0.4167 0.0000  plane waves:   66598
 k-point 63 :  -0.4167 0.4167 0.0000  plane waves:   66572
 k-point 64 :  -0.3333 0.4167 0.0000  plane waves:   66563
 k-point 65 :  -0.2500 0.4167 0.0000  plane waves:   66555
 k-point 66 :  -0.1667 0.4167 0.0000  plane waves:   66555
 k-point 67 :  -0.0833 0.4167 0.0000  plane waves:   66530
 k-point 68 :  -0.0000 0.5000 0.0000  plane waves:   66552
 k-point 69 :   0.0833 0.5000 0.0000  plane waves:   66502
 k-point 70 :   0.1667 0.5000 0.0000  plane waves:   66552
 k-point 71 :   0.2500 0.5000 0.0000  plane waves:   66555
 k-point 72 :   0.3333 0.5000 0.0000  plane waves:   66558
 k-point 73 :   0.4167 0.5000 0.0000  plane waves:   66598
 k-point 74 :   0.5000 0.5000 0.0000  plane waves:   66566

 maximum and minimum number of plane-waves per node :     66637    66502

 maximum number of plane-waves:     66637
 maximum index in each direction: 
   IXMAX=   18   IYMAX=   18   IZMAX=   54
   IXMIN=  -18   IYMIN=  -18   IZMIN=  -54

 NGX is ok and might be reduce to  74
 NGY is ok and might be reduce to  74
 NGZ is ok and might be reduce to 218

 serial   3D FFT for wavefunctions
 parallel 3D FFT for charge:
    minimum data exchange during FFTs selected (reduces bandwidth)


 total amount of memory used by VASP on root node  2162030. kBytes
========================================================================

   base      :      30000. kBytes
   nonl-proj :    1449020. kBytes
   fftplans  :      29912. kBytes
   grid      :      97715. kBytes
   one-center:        419. kBytes
   wavefun   :     554964. kBytes
 
     INWAV:  cpu time    0.0000: real time    0.0000
 Broyden mixing: mesh for mixing (old mesh)
   NGX = 37   NGY = 37   NGZ =109
  (NGX  =160   NGY  =160   NGZ  =448)
  gives a total of 149221 points

 initial charge density was supplied:
 charge density of overlapping atoms calculated
 number of electron     162.0000000 magnetization 
 keeping initial charge density in first step


--------------------------------------------------------------------------------------------------------


 Maximum index for augmentation-charges         1784 (set IRDMAX)


--------------------------------------------------------------------------------------------------------


 First call to EWALD:  gamma=   0.129
 Maximum number of real-space cells 4x 4x 2
 Maximum number of reciprocal cells 2x 2x 5

 FEWALD executed in parallel
    FEWALD:  cpu time    0.0014: real time    0.0014


----------------------------------------- Iteration    1(   1)  ---------------------------------------


    POTLOK:  cpu time    0.6155: real time    0.6654
    SETDIJ:  cpu time    0.0106: real time    0.0113
